 &FCI NORB=  6,NELEC=  8,MS2= 0,
  ORBSYM=1,1,1,1,1,1,
  ISYM=1,
  OCC=  4,  0,  0,  0,  0,  0,  0,  0,
  CLOSED=  4,  0,  0,  0,  0,  0,  0,  0,
  FOCK=    -20.539732716009,     -1.354534607571,     -0.655285444509,     -0.587805689131,     -0.533472163282,
       0.335277353780,
 /
  0.7423990772708099E+00   1   1   1   1
  0.1973161798764849E-16   2   1   1   1
  0.1229569969087680E+00   2   1   2   1
  0.6220258750108739E+00   2   2   1   1
 -0.4735795089416683E-15   2   2   2   1
  0.5815676803002967E+00   2   2   2   2
 -0.2126523119423515E-02   3   1   1   1
  0.2138046684141415E-15   3   1   2   1
 -0.8596666938363568E-02   3   1   2   2
  0.1143602336900975E+00   3   1   3   1
 -0.3211523507978083E-15   3   2   1   1
  0.4663891574479827E-02   3   2   2   1
 -0.7427807514440105E-15   3   2   2   2
  0.1039482332878225E-14   3   2   3   1
  0.3961099617243835E-01   3   2   3   2
  0.6575379994386413E+00   3   3   1   1
  0.1058181320345852E-14   3   3   2   1
  0.5647631065868653E+00   3   3   2   2
 -0.9735410077278848E-01   3   3   3   1
 -0.9055256544598933E-15   3   3   3   2
  0.7272525682824950E+00   3   3   3   3
 -0.2208318741143701E-21   4   1   1   1
 -0.3098093788667464E-16   4   1   2   1
  0.2398841023944591E-22   4   1   2   2
  0.1480279427755224E-24   4   1   3   1
  0.1042805162270393E-15   4   1   3   2
 -0.6617894906575788E-22   4   1   3   3
  0.1382193132493973E+00   4   1   4   1
 -0.2366627421889718E-15   4   2   1   1
  0.1170431937505762E-21   4   2   2   1
 -0.1459282272331273E-15   4   2   2   2
  0.1296843586809713E-15   4   2   3   1
  0.6012452462898910E-22   4   2   3   2
 -0.2547853686972810E-15   4   2   3   3
  0.3528044446481279E-15   4   2   4   1
  0.2701369044319302E-01   4   2   4   2
 -0.2295983103260068E-21   4   3   1   1
  0.1000803444217689E-15   4   3   2   1
 -0.1326651770478535E-21   4   3   2   2
  0.1043416710907160E-21   4   3   3   1
 -0.1901540820743388E-16   4   3   3   2
 -0.2930576679757183E-21   4   3   3   3
 -0.4052989697171847E-01   4   3   4   1
 -0.2032099211150278E-15   4   3   4   2
  0.4788416879232595E-01   4   3   4   3
  0.7290088988318446E+00   4   4   1   1
  0.5117434254131581E-15   4   4   2   1
  0.5940828425765575E+00   4   4   2   2
 -0.6659889125142178E-01   4   4   3   1
 -0.8951173136040325E-15   4   4   3   2
  0.6795632313875054E+00   4   4   3   3
 -0.4246413891362469E-21   4   4   4   1
 -0.3578182874611362E-15   4   4   4   2
 -0.2784071079310196E-21   4   4   4   3
  0.8094348397688927E+00   4   4   4   4
 -0.1648008689463439E+00   5   1   1   1
  0.5310422240834001E-15   5   1   2   1
 -0.9248200838552846E-01   5   1   2   2
 -0.1925780662996389E-01   5   1   3   1
 -0.2688821387764051E-16   5   1   3   2
 -0.9508662358875920E-01   5   1   3   3
 -0.4111629420823263E-22   5   1   4   1
  0.1489473502014461E-15   5   1   4   2
  0.2563558969745820E-21   5   1   4   3
 -0.1587429970777383E+00   5   1   4   4
  0.1033280933107963E+00   5   1   5   1
  0.1830850074049590E-14   5   2   1   1
  0.1946083626409021E-01   5   2   2   1
  0.4358614277889987E-15   5   2   2   2
 -0.2835239507950974E-15   5   2   3   1
  0.1757201042450512E-01   5   2   3   2
  0.2290532495934742E-14   5   2   3   3
  0.1486394919154139E-15   5   2   4   1
  0.9772324645165329E-22   5   2   4   2
  0.3968607400371078E-16   5   2   4   3
  0.1929012505286209E-14   5   2   4   4
 -0.9515867984712325E-15   5   2   5   1
  0.5119677741145702E-01   5   2   5   2
 -0.1026329423648284E+00   5   3   1   1
 -0.2278992966564530E-15   5   3   2   1
 -0.5362956650955097E-01   5   3   2   2
  0.3699947482877099E-01   5   3   3   1
  0.9723125082850004E-15   5   3   3   2
 -0.1199713035819826E+00   5   3   3   3
  0.3769273109257978E-21   5   3   4   1
  0.1369571770440784E-15   5   3   4   2
  0.9025652131381436E-23   5   3   4   3
 -0.1149748107577567E+00   5   3   4   4
  0.5665738103137600E-01   5   3   5   1
 -0.4961309141293668E-15   5   3   5   2
  0.6881898439976794E-01   5   3   5   3
 -0.5301314903179665E-21   5   4   1   1
  0.1430412693264496E-15   5   4   2   1
 -0.3294879313280321E-21   5   4   2   2
  0.3392043511123262E-21   5   4   3   1
  0.3964402037553105E-16   5   4   3   2
 -0.6193837397375735E-21   5   4   3   3
 -0.4416968272462914E-01   5   4   4   1
  0.9557358690978073E-16   5   4   4   2
 -0.7123612333155621E-03   5   4   4   3
 -0.7555479592466329E-21   5   4   4   4
  0.3201149933305909E-21   5   4   5   1
  0.4578004201629190E-16   5   4   5   2
  0.2251540562509077E-21   5   4   5   3
  0.3002502700616374E-01   5   4   5   4
  0.5807802029742132E+00   5   5   1   1
 -0.9419548474554063E-15   5   5   2   1
  0.5099488410030826E+00   5   5   2   2
  0.4073993601591469E-01   5   5   3   1
 -0.1526556658859590E-15   5   5   3   2
  0.5105451685234494E+00   5   5   3   3
  0.2489235916539479E-21   5   5   4   1
 -0.7335044516806995E-16   5   5   4   2
 -0.1008598880803932E-21   5   5   4   3
  0.5435487427894077E+00   5   5   4   4
 -0.1073383847491669E+00   5   5   5   1
  0.7077671781985373E-15   5   5   5   2
 -0.4896005980023792E-01   5   5   5   3
 -0.3230945263683150E-21   5   5   5   4
  0.5214180022943066E+00   5   5   5   5
 -0.5951950867256485E-15   6   1   1   1
 -0.4476839507144343E-01   6   1   2   1
 -0.1017357709178991E-14   6   1   2   2
 -0.4341548632127060E-15   6   1   3   1
  0.3091454971383579E-01   6   1   3   2
  0.3329674196206271E-15   6   1   3   3
 -0.9698644519510023E-16   6   1   4   1
  0.1149637250091784E-21   6   1   4   2
  0.7095763896595526E-16   6   1   4   3
 -0.6626643678231401E-15   6   1   4   4
  0.2817593174249674E-15   6   1   5   1
  0.2879192922293957E-01   6   1   5   2
  0.6399222519177820E-15   6   1   5   3
  0.6309417980546090E-16   6   1   5   4
 -0.2824530101648829E-15   6   1   5   5
  0.5643292349972385E-01   6   1   6   1
 -0.1557770567157570E+00   6   2   1   1
 -0.1596379278767657E-14   6   2   2   1
 -0.1072178739740397E+00   6   2   2   2
  0.7331538854796946E-01   6   2   3   1
  0.6114900252818245E-15   6   2   3   2
 -0.1604322638164004E+00   6   2   3   3
  0.3667100440349810E-21   6   2   4   1
  0.2245653943932458E-15   6   2   4   2
  0.1798120927899827E-21   6   2   4   3
 -0.1875755758447762E+00   6   2   4   4
  0.7728984360239956E-01   6   2   5   1
 -0.1700029006457271E-14   6   2   5   2
  0.7917559332985137E-01   6   2   5   3
  0.4211931294593046E-21   6   2   5   4
 -0.5684840320520241E-01   6   2   5   5
  0.5898059818321144E-15   6   2   6   1
  0.1492965700539633E+00   6   2   6   2
 -0.1919843479874602E-14   6   3   1   1
  0.6495687344128145E-01   6   3   2   1
 -0.1436410539525431E-14   6   3   2   2
  0.1737965486473595E-14   6   3   3   1
 -0.6260425418399015E-02   6   3   3   2
 -0.2280176831068926E-14   6   3   3   3
  0.1523802775700438E-15   6   3   4   1
  0.1229093757281427E-21   6   3   4   2
 -0.1634747634197945E-16   6   3   4   3
 -0.2442490654175344E-14   6   3   4   4
  0.1169774666476952E-14   6   3   5   1
  0.3279761240219523E-01   6   3   5   2
  0.1350368286482644E-14   6   3   5   3
  0.7268015994382196E-16   6   3   5   4
 -0.1006842686862761E-14   6   3   5   5
 -0.1634486429851760E-01   6   3   6   1
  0.1202061361228647E-14   6   3   6   2
  0.5901840986112934E-01   6   3   6   3
 -0.3563925767582284E-15   6   4   1   1
  0.2652782594677528E-21   6   4   2   1
 -0.1573905205788300E-15   6   4   2   2
  0.1686815988806215E-15   6   4   3   1
  0.8681599723618276E-22   6   4   3   2
 -0.3693317288197801E-15   6   4   3   3
 -0.1832669573684328E-15   6   4   4   1
 -0.1983970141895677E-01   6   4   4   2
 -0.2102384135177284E-15   6   4   4   3
 -0.5197878709964920E-15   6   4   4   4
  0.1754578491343072E-15   6   4   5   1
  0.1694396413521430E-21   6   4   5   2
  0.1804557781164779E-15   6   4   5   3
  0.4441256026995874E-16   6   4   5   4
 -0.1321076631711891E-15   6   4   5   5
 -0.4293989012078834E-22   6   4   6   1
  0.2954986263702911E-15   6   4   6   2
  0.1578804273604884E-21   6   4   6   3
  0.1989979450821434E-01   6   4   6   4
  0.1927637882848975E-15   6   5   1   1
  0.7416543166697942E-01   6   5   2   1
 -0.1122488774027856E-14   6   5   2   2
  0.1119986582785328E-14   6   5   3   1
  0.3313845637019971E-01   6   5   3   2
  0.6584521092172655E-15   6   5   3   3
  0.1716188011351222E-15   6   5   4   1
  0.2190090068705967E-21   6   5   4   2
  0.7349539263620245E-16   6   5   4   3
 -0.2775557561562890E-16   6   5   4   4
 -0.3318454476537145E-17   6   5   5   1
  0.3937952516226764E-01   6   5   5   2
  0.4577784370420584E-15   6   5   5   3
  0.8719452660020070E-16   6   5   5   4
 -0.3307831598001066E-15   6   5   5   5
  0.2600393045187382E-02   6   5   6   1
 -0.4540032726927912E-15   6   5   6   2
  0.4601587214145387E-01   6   5   6   3
  0.2036763151028171E-21   6   5   6   4
  0.8670855209525336E-01   6   5   6   5
  0.5977410494972710E+00   6   6   1   1
  0.3504141421473150E-15   6   6   2   1
  0.5604600574713053E+00   6   6   2   2
 -0.1250139228309703E-01   6   6   3   1
  0.1058181320345852E-15   6   6   3   2
  0.5629232498411050E+00   6   6   3   3
 -0.7313396174870361E-23   6   6   4   1
 -0.3296543842309098E-16   6   6   4   2
 -0.6573807727632846E-22   6   6   4   3
  0.5770447892901166E+00   6   6   4   4
 -0.8251990014356522E-01   6   6   5   1
  0.8743006318923108E-15   6   6   5   2
 -0.4270355165101280E-01   6   6   5   3
 -0.2723712943113717E-21   6   6   5   4
  0.5122416537123041E+00   6   6   5   5
 -0.3504141421473150E-15   6   6   6   1
 -0.9399920431043399E-01   6   6   6   2
 -0.1068589661201713E-14   6   6   6   3
 -0.2191432599922165E-15   6   6   6   4
  0.2498001805406602E-15   6   6   6   5
  0.5707706814985458E+00   6   6   6   6
 -0.5738542687543108E+01   1   1   0   0
 -0.4024558464266192E-15   2   1   0   0
 -0.4609015089516340E+01   2   2   0   0
  0.2140057349365672E+00   3   1   0   0
  0.3191891195797325E-14   3   2   0   0
 -0.4916931533464779E+01   3   3   0   0
  0.7720743992459672E-22   4   1   0   0
  0.1129492917621506E-14   4   2   0   0
  0.1040475168206865E-20   4   3   0   0
 -0.5135099776070779E+01   4   4   0   0
  0.8697147556214802E+00   5   1   0   0
 -0.1065814103640150E-13   5   2   0   0
  0.6600477852443569E+00   5   3   0   0
  0.3610470958776799E-20   5   4   0   0
 -0.3700999674609664E+01   5   5   0   0
  0.3858025010572419E-14   6   1   0   0
  0.1043919144792401E+01   6   2   0   0
  0.1298960938811433E-13   6   3   0   0
  0.2338751383460554E-14   6   4   0   0
  0.0000000000000000E+00   6   5   0   0
 -0.3853695158813972E+01   6   6   0   0
 -0.5238087640528506E+02   0   0   0   0
